# ------------------------------------
# Graphene conventional unit cell (1x1)
# Zig-zag direction along the x-axis
# Armchair direction along the y-axis
# Lattice Constant a= 2.49 A
# ------------------------------------

4 atoms
2 atom types
-0.6 1.89 xlo xhi
-0.6 3.712806511 ylo yhi
-15.00000000     15.00000000 zlo zhi

Masses

1 12.0107 
2 12.0107 

Atoms  # charge

1 1 0.0 0.000000000 0.000000000 0.000000000
2 2 0.0 1.244999974 0.718801070 0.000000000
3 1 0.0 1.244999965 2.156403195 0.000000000
4 2 0.0 0.000000000 2.875204265 0.000000000


